# LAMMPS data file written by OVITO Basic 3.5.4
28938 atoms
72 atom types
0.0 60.0 xlo xhi
0.0 60.0 ylo yhi
0.0 60.0 zlo zhi

Masses

1 1.0
2 1.0
3 1.0
4 1.0
5 10.811  # B
6 1.0
7 14.0067  # N
8 1.0
9 1.0
10 1.0
11 1.0
12 1.0
13 1.0
14 1.0
15 1.0
16 1.0
17 1.0
18 1.0
19 1.0
20 1.0
21 1.0
22 47.867  # Ti
23 1.0
24 1.0
25 1.0
26 1.0
27 1.0
28 1.0
29 1.0
30 1.0
31 1.0
32 1.0
33 1.0
34 1.0
35 1.0
36 1.0
37 1.0
38 1.0
39 1.0
40 1.0
41 1.0
42 1.0
43 1.0
44 1.0
45 1.0
46 1.0
47 1.0
48 1.0
49 1.0
50 1.0
51 1.0
52 1.0
53 1.0
54 1.0
55 1.0
56 1.0
57 1.0
58 1.0
59 1.0
60 1.0
61 1.0
62 1.0
63 1.0
64 1.0
65 1.0
66 1.0
67 1.0
68 1.0
69 1.0
70 1.0
71 1.0
72 178.49  # Hf

Atoms  # atomic

1 7 10.9403562 32.625375 38.0770194
2 7 14.1939588 40.0509762 37.9588146
3 7 12.305214 34.6717566 37.3535334
4 7 8.310723 23.2304718 42.8886558
5 7 6.6338802 22.1687418 41.2654266
6 7 7.7868354 19.8976338 41.5598886
7 5 6.396957 19.1767878 41.4422088
8 7 6.4219776 17.8512528 42.2833746
9 7 7.2629478 16.5647958 40.2311214
10 7 5.89809 14.5184142 40.9546074
11 7 6.7390602 13.2319572 38.9023548
12 7 9.8874834 29.594343 41.1472212
13 7 11.0404386 27.323235 41.4416832
14 5 9.6505602 26.6023884 41.3240034
15 5 8.2857024 24.5560074 42.0474894
16 5 7.9737174 25.5406584 39.7007742
17 7 9.6755808 25.2768534 42.1651692
18 7 9.3635958 26.2615044 39.818454
19 7 7.998738 24.2151234 40.54194
20 7 10.516551 23.9903964 40.1129166
21 5 9.1266726 23.2695504 39.9952368
22 5 7.7618148 21.2231688 40.7187228
23 7 9.1516932 21.9440154 40.8364026
24 7 8.8397082 22.9286664 38.4896868
25 7 9.9926634 20.6575584 38.7841494
26 5 8.602785 19.9367118 38.6664696
27 5 7.2379272 17.8903308 39.3899556
28 7 8.6278056 18.6111768 39.5076354
29 7 9.4687758 17.3247198 37.4553822
30 7 8.103918 15.2783388 38.1788682
31 7 14.2940412 34.7488356 41.3234784
32 5 12.9041628 34.0279896 41.2057986
33 5 11.2273206 32.966259 39.5825694
34 7 12.9291834 32.702454 42.0469644
35 7 12.617199 33.6871056 39.7002492
36 7 11.2523412 31.640724 40.4237352
37 7 13.7701536 31.4159976 39.9947112
38 5 12.3802758 30.695151 39.8770314
39 5 11.015418 28.64877 40.6005174
40 5 10.703433 29.633421 38.2538022
41 7 12.4052964 29.369616 40.7181972
42 7 12.0933114 30.354267 38.371482
43 7 10.7284536 28.307886 39.094968
44 7 13.2462666 28.083159 38.665944
45 5 9.3385752 27.5870394 38.9772882
46 5 11.8563882 27.362313 38.5482642
47 5 10.4915304 25.3159314 39.2717502
48 7 11.8814088 26.036778 39.38943
49 7 11.5694238 27.021429 37.0427148
50 7 10.204566 24.9750474 37.7662008
51 7 12.722379 24.750321 37.3371774
52 5 11.3325006 24.0294744 37.2194976
53 5 9.9676428 21.9830934 37.9429836
54 7 11.3575212 22.7039394 38.0606634
55 7 12.1984914 21.4174824 36.0084102
56 7 10.8336336 19.3711014 36.7318962
57 7 17.0237568 38.8415982 39.8765058
58 5 15.6338784 38.1207522 39.758826
59 5 14.2690206 36.0743706 40.482312
60 5 13.9570356 37.0590216 38.1355968
61 7 15.658899 36.7952166 40.5999918
62 7 15.346914 37.7798682 38.2532766
63 7 13.9820562 35.7334866 38.9767626
64 7 16.4998692 35.5087602 38.5477392
65 5 12.5921784 35.0126406 38.8590828
66 5 15.1099908 34.7879136 38.4300594
67 5 13.745133 32.7415326 39.1535454
68 5 13.4331486 33.7261836 36.8068296
69 7 15.1350114 33.4623786 39.2712252
70 7 14.823027 34.4470296 36.9245094
71 7 13.4581692 32.4006486 37.647996
72 7 15.9759816 32.1759216 37.218972
73 5 12.0682908 31.679802 37.5303162
74 5 14.5861038 31.4550756 37.1012922
75 5 13.221246 29.408694 37.8247782
76 7 14.6111244 30.1295406 37.942458
77 7 14.2991394 31.1141916 35.5957428
78 7 12.9342816 29.06781 36.3192288
79 7 15.4520946 28.8430836 35.8902048
80 5 14.0622162 28.1222376 35.772525
81 5 12.6973584 26.075856 36.496011
82 7 14.0872368 26.796702 36.6136908
83 7 14.928207 25.510245 34.5614376
84 5 13.5383286 24.789399 34.4437578
85 7 13.5633492 23.463864 35.2849242
86 7 14.4043194 22.177407 33.232671
87 7 13.0394616 20.131026 33.956157
88 7 20.27736 46.2671988 39.758301
89 5 18.8874816 45.5463528 39.6406212
90 5 17.2106388 44.4846228 38.017392
91 7 18.9125022 44.2208178 40.481787
92 7 18.6005172 45.2054688 38.1350718
93 7 17.2356594 43.1590878 38.8585578
94 7 19.7534724 42.9343608 38.4295338
95 5 18.363594 42.2135148 38.311854
96 5 16.9987362 40.1671332 39.03534
97 7 18.3886146 40.8879792 39.1530198
98 7 18.0766296 41.8726308 36.8063046
99 7 16.7117718 39.8262492 37.5297906
100 7 19.2295848 39.6015228 37.1007666
101 5 15.3218934 39.1054032 37.4121108
102 5 17.8397064 38.8806762 36.9830868
103 5 16.4748486 36.8342952 37.7065728
104 7 17.864727 37.5551412 37.8242526
105 7 17.552742 38.5397922 35.4775374
106 7 16.1878842 36.4934112 36.2010234
107 7 18.7056972 36.2686842 35.772
108 5 14.7980064 35.7725646 36.0833436
109 5 17.3158188 35.5478382 35.6543202
110 5 15.950961 33.5014566 36.3778062
111 7 17.3408394 34.2223032 36.495486
112 7 17.028855 35.2069542 34.1487702
113 7 15.6639972 33.1605726 34.8722568
114 7 18.1818096 32.9358462 34.4432328
115 5 16.7919318 32.2150002 34.325553
116 5 15.427074 30.1686186 35.049039
117 7 16.8169524 30.8894646 35.1667188
118 7 17.6579226 29.6030076 33.1144656
119 5 16.2680442 28.8821616 32.9967858
120 5 14.9031864 26.8357806 33.7202718
121 7 16.2930648 27.5566266 33.8379516
122 7 17.134035 26.2701696 31.7856984
123 7 15.7691772 24.2237886 32.509185
124 7 23.007075 50.3599614 38.3113284
125 5 21.6171972 49.6391154 38.1936486
126 5 20.2523394 47.5927344 38.9171346
127 7 21.6422172 48.3135804 39.0348144
128 7 19.965375 47.2518504 37.4115852
129 7 22.483188 47.0271234 36.9825618
130 5 21.0933096 46.3062774 36.864882
131 5 19.7284518 44.2598958 37.588368
132 7 21.1183302 44.9807424 37.7060478
133 7 21.9593004 43.6942854 35.6537946
134 5 20.569422 42.9734388 35.5361148
135 5 19.2045642 40.9270578 36.2596008
136 7 20.5944426 41.6479038 36.3772806
137 7 21.4354128 40.3614468 34.3250274
138 5 20.0455344 39.6406008 34.2073476
139 5 18.6806766 37.5942192 34.9308336
140 7 20.070555 38.3150658 35.0485134
141 7 20.9115252 37.0286088 32.9962602
142 5 18.1567896 34.2613812 33.602067
143 7 19.5466674 34.9822272 33.7197468
144 7 20.3876376 33.6957708 31.6674936
145 5 17.632902 30.9285432 32.2732998
146 7 19.0227804 31.6493892 32.3909796
147 7 18.4988928 28.3165512 31.0622124
148 5 22.9820544 51.685497 37.4701626
149 7 25.212903 51.119886 35.5355892
150 5 22.4581674 48.3526584 36.1413954
151 7 23.8480452 49.073505 36.2590752
152 7 23.3241582 45.7406664 34.9303086
153 7 22.8002706 42.4078284 33.6015414
154 7 7.8869178 14.5954932 44.9245524
155 7 6.210075 13.5337632 43.3013232
156 7 7.3630302 11.2626552 43.5957852
157 5 5.9731518 10.5418092 43.4781054
158 7 5.9981724 9.2162736 44.3192712
159 7 6.8391426 7.9298172 42.267018
160 7 6.315255 4.5969786 40.9382514
161 7 11.664408 25.3539324 46.1351142
162 5 10.2745296 24.6330864 46.0174344
163 5 8.5976874 23.5713558 44.3942052
164 7 10.2995502 23.3075514 46.8586002
165 7 9.9875652 24.2922024 44.511885
166 7 8.622708 22.2458208 45.235371
167 7 11.1405204 22.0210944 44.806347
168 5 9.7506426 21.3002478 44.6886672
169 5 8.3857848 19.2538668 45.4121532
170 5 8.0737998 20.2385178 43.065438
171 7 9.7756626 19.9747128 45.529833
172 7 9.4636782 20.9593638 43.1831178
173 7 8.0988204 18.9129828 43.9066038
174 7 10.6166334 18.6882558 43.4775798
175 5 9.226755 17.9674098 43.3599
176 5 7.8618972 15.9210288 44.083386
177 5 7.5499122 16.9056798 41.7366708
178 7 9.2517756 16.6418748 44.2010658
179 7 8.9397906 17.6265258 41.8543506
180 7 7.5749328 15.5801448 42.5778366
181 7 10.0927458 15.3554178 42.1488132
182 5 6.1850544 14.8592982 42.4601568
183 5 8.7028674 14.6345718 42.0311334
184 5 7.3380096 12.5881902 42.7546194
185 5 7.0260246 13.5728412 40.4079042
186 7 8.727888 13.3090362 42.8722992
187 7 8.415903 14.2936878 40.525584
188 7 7.0510452 12.2473062 41.24907
189 7 9.5688582 12.0225798 40.820046
190 5 8.1789798 11.3017332 40.7023662
191 5 6.814122 9.2553522 41.4258522
192 5 6.5021376 10.2400032 39.079137
193 7 8.2040004 9.9761982 41.543532
194 7 7.8920154 10.9608492 39.1968168
195 7 6.5271576 8.9144682 39.9203028
196 7 9.0449706 8.6897412 39.4912788
197 5 7.6550922 7.9688952 39.373599
198 5 6.290235 5.9225136 40.097085
199 7 7.6801128 6.6433602 40.2147648
200 7 7.3681284 7.6280112 37.8680496
201 7 6.0032706 5.5816296 38.5915356
202 7 8.5210836 5.3569032 38.1625122
203 5 7.1312052 4.6360572 38.0448324
204 7 7.1562258 3.3105216 38.8859982
205 7 7.997196 2.0240646 36.833745
206 7 14.3941236 29.446695 44.6881416
207 5 13.0042452 28.725849 44.5704618
208 5 11.6393874 26.6794674 45.2939484
209 5 11.3274024 27.664119 42.9472326
210 7 13.0292658 27.400314 45.4116282
211 7 12.7172808 28.384965 43.0649124
212 7 11.352423 26.3385834 43.7883984
213 7 13.870236 26.113857 43.359375
214 5 9.9625452 25.6177374 43.6707186
215 5 12.4803576 25.3930104 43.2416952
216 5 11.1154998 23.3466294 43.9651812
217 5 10.8035154 24.3312804 41.618466
218 7 12.5053782 24.0674754 44.082861
219 7 12.1933938 25.0521264 41.7361458
220 7 10.828536 23.0057454 42.4596318
221 7 13.3463484 22.7810184 42.0306078
222 5 9.4386576 22.2848994 42.341952
223 5 11.9564706 22.0601724 41.912928
224 5 10.5916128 20.0137914 42.636414
225 5 10.2796278 20.9984424 40.2896988
226 7 11.9814912 20.7346374 42.7540938
227 7 11.6695062 21.7192884 40.4073786
228 7 10.3046484 19.6729074 41.1308646
229 7 12.8224614 19.4481804 40.7018406
230 5 8.91477 18.9520608 41.0131848
231 5 11.432583 18.7273344 40.5841608
232 5 10.0677252 16.6809528 41.3076468
233 5 9.7557402 17.6656038 38.9609316
234 7 11.4576036 17.4017994 41.4253266
235 7 11.1456186 18.3864504 39.0786114
236 7 9.7807608 16.3400688 39.8020974
237 7 12.2985738 16.1153424 39.373074
238 5 8.3908824 15.6192228 39.6844176
239 5 10.9086954 15.3944958 39.2553942
240 5 9.5438376 13.3481148 39.9788802
241 5 9.2318526 14.3327658 37.632165
242 7 10.933716 14.0689608 40.09656
243 7 10.621731 15.0536118 37.7498448
244 7 9.2568732 13.0072308 38.4733308
245 7 11.7746862 12.7825038 38.0443068
246 5 7.8669948 12.2863842 38.355651
247 5 10.3848078 12.0616578 37.926627
248 5 9.01995 10.0152762 38.650113
249 7 10.4098284 10.7361228 38.7677928
250 7 10.0978434 11.7207738 36.4210776
251 7 8.7329862 9.6743922 37.1445636
252 7 11.2507986 9.4496658 36.7155396
253 5 9.8609202 8.7288198 36.5978598
254 5 8.496063 6.6824382 37.3213458
255 7 9.8859408 7.4032842 37.4390256
256 7 10.7269116 6.1168278 35.386773
257 5 9.3370332 5.3959812 35.2690932
258 5 7.9721754 3.3496002 35.9925792
259 7 9.3620538 4.0704462 36.110259
260 7 10.203024 2.7839892 34.0580058
261 7 17.6477268 36.8722962 44.5699368
262 5 14.5810056 35.0897196 42.8290278
263 7 16.282869 34.8259146 45.2934228
264 7 15.970884 35.8105656 42.9467076
265 7 14.6060262 33.7641846 43.6701936
266 7 17.1238392 33.5394576 43.2411696
267 5 15.7339608 32.8186116 43.1234898
268 5 14.369103 30.77223 43.8469758
269 5 14.057118 31.7568816 41.5002606
270 7 15.7589814 31.4930766 43.9646556
271 7 15.4469964 32.4777276 41.6179404
272 7 14.0821386 30.431346 42.3414264
273 7 16.5999516 30.2066196 41.9124024
274 5 12.6922602 29.7105 42.2237466
275 5 15.2100732 29.4857736 41.7947226
276 5 13.8452154 27.439392 42.5182086
277 5 13.5332304 28.424043 40.1714934
278 7 15.2350938 28.160238 42.6358884
279 7 14.9231088 29.1448896 40.2891732
280 7 13.558251 27.098508 41.0126592
281 7 16.076064 26.873781 40.5836358
282 5 12.1683732 26.377662 40.8949794
283 5 14.6861856 26.152935 40.465956
284 5 13.3213278 24.106554 41.189442
285 5 13.0093434 25.091205 38.8427268
286 7 14.7112062 24.8274 41.3071218
287 7 14.3992218 25.812051 38.9604066
288 7 13.034364 23.76567 39.6838926
289 7 15.5521764 23.540943 39.2548686
290 5 11.6444856 23.0448234 39.5662128
291 5 14.1622986 22.820097 39.1371888
292 5 12.7974408 20.7737154 39.8606748
293 5 12.4854558 21.7583664 37.5139596
294 7 14.1873192 21.494562 39.9783546
295 7 13.8753342 22.479213 37.6316394
296 7 12.5104764 20.4328314 38.3551254
297 7 15.0282894 20.208105 37.9261014
298 5 11.120598 19.7119854 38.2374456
299 5 13.638411 19.4872584 37.8084216
300 5 12.2735532 17.4408774 38.5319076
301 5 11.9615682 18.4255284 36.1851924
302 7 13.6634316 18.1617234 38.6495874
303 7 13.3514466 19.1463744 36.3028722
304 7 11.9865888 17.0999934 37.0263582
305 7 14.5044018 16.8752664 36.5973348
306 5 10.5967104 16.3791474 36.9086784
307 5 13.1145234 16.1544204 36.479655
308 5 11.7496656 14.1080388 37.203141
309 5 11.4376806 15.0926904 34.8564252
310 7 13.139544 14.8288854 37.3208208
311 7 12.827559 15.8135364 34.9741056
312 7 11.4627012 13.7671548 35.6975916
313 7 13.9805142 13.5424284 35.2685676
314 5 10.0728228 13.0463088 35.5799118
315 5 12.5906358 12.8215824 35.1508878
316 5 11.225778 10.7752008 35.8743738
317 7 12.6156564 11.4960468 35.9920536
318 7 12.3036714 12.4806984 33.6453384
319 7 10.9388142 10.4343168 34.3688244
320 7 13.4566266 10.2095904 33.9398004
321 5 12.0667482 9.4887438 33.8221206
322 5 10.701891 7.4423628 34.5456066
323 7 12.0917688 8.1632088 34.6632864
324 7 12.9327396 6.8767518 32.6110338
325 7 11.5678818 4.8303708 33.3345198
326 7 20.3774418 40.9650588 43.1229642
327 5 18.9875634 40.2442122 43.0052844
328 5 17.6227062 38.1978312 43.728771
329 5 17.3107212 39.1824822 41.3820552
330 7 19.012584 38.9186772 43.8464508
331 7 18.7005996 39.9033282 41.499735
332 7 17.3357418 37.8569472 42.223221
333 7 19.8535548 37.6322202 41.7941976
334 5 15.9458634 37.1361006 42.1055412
335 5 18.4636764 36.9113742 41.6765178
336 5 17.0988186 34.8649926 42.4000038
337 5 16.7868336 35.8496442 40.0532886
338 7 18.488697 35.5858392 42.5176836
339 7 18.176712 36.5704902 40.1709684
340 7 16.8118542 34.5241086 40.8944544
341 7 19.3296672 34.2993822 40.4654304
342 5 15.4219758 33.8032626 40.7767746
343 5 17.9397888 33.5785362 40.3477506
344 5 16.574931 31.5321546 41.0712366
345 5 16.262946 32.5168056 38.7245214
346 7 17.9648094 32.2530006 41.1889164
347 7 17.6528244 33.2376522 38.8422012
348 7 16.2879666 31.1912706 39.5656872
349 7 18.8057796 30.9665436 39.1366632
350 5 14.8980882 30.4704246 39.4480074
351 5 17.4159012 30.2456976 39.0189834
352 5 16.0510434 28.1993166 39.7424694
353 5 15.7390584 29.1839676 37.3957542
354 7 17.4409218 28.9201626 39.8601492
355 7 17.1289368 29.9048136 37.513434
356 7 15.764079 27.8584326 38.23692
357 7 18.281892 27.6337056 37.8078966
358 5 14.3742012 27.137586 38.1192402
359 5 16.8920136 26.9128596 37.6902168
360 5 15.5271558 24.866478 38.4137028
361 5 15.2151714 25.851129 36.0669876
362 7 16.9170342 25.5873246 38.5313826
363 7 16.6050498 26.5719756 36.1846674
364 7 15.240192 24.525594 36.9081534
365 7 17.7580044 24.3008676 36.4791294
366 5 13.8503136 23.804748 36.7904736
367 5 16.3681266 23.580021 36.3614496
368 5 15.0032688 21.53364 37.0849356
369 5 14.6912838 22.518291 34.7382204
370 7 16.3931472 22.254486 37.2026154
371 7 16.0811622 23.239137 34.8559002
372 7 14.7163044 21.192756 35.5793862
373 7 17.2341174 20.968029 35.1503622
374 5 13.326426 20.47191 35.4617064
375 5 15.844239 20.247183 35.0326824
376 5 14.4793812 18.200802 35.7561684
377 5 14.1673962 19.185453 33.4094532
378 7 15.8692596 18.921648 35.8738482
379 7 15.5572746 19.906299 33.527133
380 7 14.1924168 17.859918 34.250619
381 7 16.7102298 17.635191 33.8215956
382 5 12.8025384 17.1390714 34.1329392
383 5 15.3203514 16.914345 33.7039158
384 5 13.9554936 14.8679634 34.4274018
385 7 15.345372 15.5888094 34.5450816
386 7 15.033387 16.573461 32.1983658
387 7 13.6685292 14.5270794 32.9218524
388 7 16.1863422 14.302353 32.4928284
389 5 14.7964638 13.5815064 32.3751486
390 5 13.431606 11.5351254 33.0986346
391 7 14.8214844 12.2559714 33.2163144
392 7 15.6624546 10.9695144 31.1640612
393 7 14.2975968 8.9231334 31.8875472
394 7 23.631045 48.3906594 43.0047594
395 7 21.9542022 47.3289294 41.3815302
396 7 20.5893444 45.2825478 42.1050162
397 7 23.1071574 45.0578214 41.6759922
398 5 21.717279 44.3369748 41.5583124
399 5 20.3524212 42.2905938 42.2817984
400 5 20.0404368 43.2752448 39.9350832
401 7 21.7422996 43.0114398 42.3994782
402 7 21.4303146 43.9960908 40.052763
403 7 20.0654574 41.9497098 40.776249
404 7 22.5832698 41.7249828 40.347225
405 5 18.675579 41.2288632 40.6585692
406 5 21.1933914 41.0041368 40.2295452
407 5 19.8285342 38.9577552 40.9530312
408 5 19.5165492 39.9424068 38.606316
409 7 21.218412 39.6786018 41.070711
410 7 20.9064276 40.6632528 38.7239958
411 7 19.5415698 38.6168712 39.4474818
412 7 22.0593828 38.3921448 39.0184584
413 5 18.1516914 37.8960252 39.329802
414 5 20.6695044 37.6712988 38.9007786
415 5 19.3046466 35.6249172 39.6242646
416 5 18.9926616 36.6095682 37.2775494
417 7 20.694525 36.3457632 39.7419444
418 7 20.38254 37.3304148 37.3952292
419 7 19.0176822 35.2840332 38.1187152
420 7 21.5354952 35.0593068 37.6896912
421 5 17.6278038 34.5631872 38.0010354
422 5 20.1456168 34.3384602 37.5720114
423 5 18.780759 32.2920792 38.2954974
424 5 18.468774 33.2767302 35.9487822
425 7 20.1706374 33.0129252 38.4131772
426 7 19.8586524 33.9975762 36.066462
427 7 18.4937946 31.9511952 36.789948
428 7 21.0116076 31.7264682 36.360924
429 5 17.1039162 31.2303486 36.6722682
430 5 19.6217292 31.0056222 36.2432442
431 5 18.2568714 28.9592406 36.9667302
432 5 17.9448864 29.9438916 34.620015
433 7 19.6467498 29.6800872 37.08441
434 7 19.3347648 30.6647382 34.7376948
435 7 17.969907 28.6183566 35.4611808
436 7 20.48772 28.3936302 35.0321574
437 5 16.5800292 27.8975106 35.343501
438 5 19.0978416 27.6727836 34.9144776
439 5 17.7329838 25.6264026 35.6379636
440 5 17.4209994 26.6110536 33.2912478
441 7 19.1228622 26.3472486 35.7556434
442 7 18.8108778 27.3318996 33.4089282
443 7 17.44602 25.2855186 34.1324142
444 7 19.9638324 25.0607916 33.7033902
445 5 16.0561416 24.5646726 34.0147344
446 5 18.5739546 24.3399456 33.5857104
447 5 17.2090968 22.2935646 34.3091964
448 5 16.8971118 23.2782156 31.9624812
449 7 18.5989752 23.0144106 34.4268762
450 7 18.2869902 23.9990616 32.080161
451 7 16.9221324 21.9526806 32.803647
452 7 19.4399454 21.7279536 32.374623
453 5 15.532254 21.231834 32.6859672
454 5 18.050067 21.0071076 32.2569432
455 5 16.6852092 18.960726 32.9804292
456 7 18.0750876 19.681572 33.098109
457 7 17.7631026 20.6662236 30.7513938
458 7 16.3982448 18.619842 31.4748798
459 7 18.9160578 18.3951156 31.0458564
460 5 17.5261794 17.674269 30.928176
461 5 16.1613216 15.627888 31.6516626
462 7 17.5512 16.348734 31.7693424
463 7 18.3921702 15.062277 29.7170892
464 5 17.0022918 14.341431 29.5994094
465 5 15.637434 12.2950494 30.3228954
466 7 17.0273124 13.015896 30.4405752
467 7 17.8682826 11.729439 28.388322
468 7 16.5034248 9.6830574 29.111808
469 5 24.9708822 51.762576 41.440107
470 5 23.6060244 49.7161944 42.1635936
471 5 23.2940394 50.7008454 39.8168778
472 7 24.9959028 50.437041 42.2812734
473 7 24.6839178 51.421692 39.9345576
474 7 23.31906 49.3753104 40.6580436
475 7 25.836873 49.150584 40.2290202
476 5 21.9291816 48.6544644 40.5403638
477 5 24.4469946 48.4297374 40.1113404
478 5 23.0821368 46.3833564 40.8348264
479 5 22.7701518 47.3680074 38.4881112
480 7 24.4720152 47.1042024 40.9525062
481 7 24.1600302 48.0888534 38.605791
482 7 22.7951724 46.0424724 39.329277
483 7 25.3129854 45.8177454 38.900253
484 5 21.4052946 45.3216264 39.2115972
485 5 23.923107 45.0968994 38.7825732
486 5 22.5582492 43.0505178 39.5060592
487 5 22.2462648 44.0351694 37.159344
488 7 23.9481276 43.7713644 39.623739
489 7 23.6361426 44.7560154 37.2770238
490 7 22.2712854 42.7096338 38.0005098
491 7 24.7890978 42.4849074 37.5714858
492 5 20.881407 41.9887878 37.88283
493 5 23.39922 41.7640614 37.453806
494 5 22.0343622 39.7176798 38.177292
495 5 21.7223772 40.7023308 35.8305768
496 7 23.42424 40.4385258 38.2949718
497 7 23.1122556 41.4231774 35.9482566
498 7 21.7473978 39.3767958 36.6717426
499 7 24.2652108 39.1520694 36.2427192
500 5 20.3575194 38.6559498 36.5540628
501 5 22.8753324 38.4312228 36.1250394
502 5 21.5104746 36.3848418 36.8485254
503 5 21.1984896 37.3694928 34.5018102
504 7 22.900353 37.1056878 36.9662052
505 7 22.588368 38.0903388 34.61949
506 7 21.2235102 36.0439578 35.342976
507 7 23.7413232 35.8192308 34.913952
508 5 19.8336318 35.3231112 35.2252962
509 5 22.3514448 35.0983848 34.7962722
510 5 20.986587 33.0520032 35.5197582
511 5 20.674602 34.0366548 33.173043
512 7 22.3764654 33.7728498 35.637438
513 7 22.0644804 34.7575008 33.2907228
514 7 20.6996226 32.7111192 34.0142088
515 7 23.2174356 32.4863928 33.5851848
516 5 19.3097442 31.9902732 33.896529
517 5 21.8275572 31.7655462 33.467505
518 5 20.4626994 29.7191652 34.190991
519 5 20.150715 30.7038162 31.8442758
520 7 21.8525778 30.4400112 34.3086708
521 7 21.5405928 31.4246622 31.9619556
522 7 20.175735 29.3782812 32.6854416
523 7 22.693548 29.1535542 32.2564182
524 5 18.7858572 28.6574352 32.5677618
525 5 21.3036696 28.4327082 32.1387384
526 5 19.9388124 26.3863272 32.8622244
527 5 19.6268274 27.3709782 30.5155086
528 7 21.3286902 27.1071732 32.9799042
529 7 21.0167058 28.0918242 30.6331884
530 7 19.651848 26.0454432 31.356675
531 7 22.1696604 25.8207162 30.927651
532 5 18.2619696 25.3245966 31.2389952
533 5 20.7797826 25.0998702 30.8099712
534 5 19.4149248 23.0534886 31.5334572
535 5 19.1029398 24.0381396 29.186742
536 7 20.8048032 23.7743352 31.651137
537 7 20.4928182 24.7589862 29.3044218
538 7 19.1279604 22.7126046 30.0279078
539 7 21.6457734 22.4878782 29.5988838
540 5 17.738082 21.9917586 29.910228
541 5 20.255895 21.7670316 29.481204
542 5 18.8910372 19.7206506 30.20469
543 7 20.2809156 20.4414966 30.3223698
544 7 19.9689306 21.4261476 27.9756546
545 7 18.6040728 19.3797666 28.6991406
546 7 21.1218858 19.1550396 28.2701166
547 5 19.7320074 18.4341936 28.1524368
548 5 18.3671496 16.387812 28.8759234
549 7 19.757028 17.1086586 28.9936032
550 7 20.5979982 15.8222016 26.94135
551 7 19.2331404 13.77582 27.664836
552 5 25.8118524 50.476119 39.3878538
553 5 25.4998674 51.46077 37.0411386
554 7 27.2017308 51.196965 39.5055342
555 7 25.524888 50.135235 37.8823044
556 7 28.042701 49.910508 37.453281
557 5 24.1350096 49.414389 37.7646246
558 5 26.6528226 49.189662 37.3356012
559 5 25.2879648 47.1432804 38.0590872
560 5 24.9759798 48.127932 35.712372
561 7 26.6778432 47.864127 38.176767
562 7 26.3658582 48.848778 35.8300518
563 7 25.0010004 46.802397 36.5535378
564 7 27.5188134 46.57767 36.1245138
565 5 23.6111226 46.0815504 36.435858
566 5 26.128935 45.856824 36.006834
567 5 24.7640772 43.8104424 36.73032
568 5 24.4520928 44.7950934 34.3836048
569 7 26.1539556 44.5312884 36.8479998
570 7 25.8419706 45.51594 34.5012846
571 7 24.4771134 43.4695584 35.2247706
572 7 26.9949258 43.244832 34.7957466
573 5 23.087235 42.7487124 35.1070908
574 5 25.605048 42.5239854 34.6780668
575 5 24.2401902 40.4776044 35.4015528
576 5 23.9282052 41.4622554 33.0548376
577 7 25.630068 41.1984504 35.5192326
578 7 25.3180836 42.1831014 33.1725174
579 7 23.9532258 40.1367204 33.8960034
580 7 26.4710388 39.9119934 33.46698
581 5 22.5633474 39.4158738 33.7783236
582 5 25.0811604 39.1911474 33.3493002
583 5 23.7163026 37.1447658 34.0727862
584 5 23.4043176 38.1294174 31.7260704
585 7 25.106181 37.8656124 34.190466
586 7 24.794196 38.8502634 31.8437508
587 7 23.4293382 36.8038818 32.5672368
588 7 25.9471512 36.5791554 32.1382128
589 5 22.0394598 36.0830358 32.449557
590 5 24.5572728 35.8583088 32.020533
591 5 23.192415 33.8119278 32.744019
592 5 22.88043 34.7965788 30.3973038
593 7 24.5822934 34.5327738 32.8616988
594 7 24.2703084 35.5174254 30.5149836
595 7 22.9054506 33.4710438 31.2384696
596 7 25.4232636 33.2463168 30.8094456
597 5 21.5155722 32.7501978 31.1207898
598 5 24.0333852 32.5254708 30.6917658
599 5 22.6685274 30.4790898 31.4152518
600 7 24.0584058 31.1999358 31.5329316
601 7 23.7464208 32.1845868 29.1862164
602 7 22.381563 30.1382058 29.9097024
603 7 24.899376 29.9134788 29.480679
604 5 20.9916852 29.4173592 29.7920226
605 5 23.5094976 29.1926328 29.3629986
606 5 22.1446404 27.1462512 30.0864852
607 7 23.5345182 27.8670978 30.204165
608 7 23.2225338 28.8517488 27.8574492
609 7 21.857676 26.8053672 28.5809358
610 7 24.3754884 26.5806408 28.1519118
611 5 20.4677976 26.0845212 28.463256
612 5 22.9856106 25.8597942 28.034232
613 5 21.6207528 23.8134132 28.757718
614 7 23.0106312 24.5342592 28.8753978
615 7 21.3337884 23.4725292 27.2521686
616 7 23.8516014 23.2478022 26.8231446
617 5 22.461723 22.5269562 26.7054648
618 5 21.0968652 20.4805746 27.4289508
619 7 22.4867436 21.2014212 27.5466306
620 7 23.3277138 19.9149642 25.4943774
621 7 21.962856 17.8685826 26.217864
622 5 28.0176804 51.2360436 36.6121146
623 7 29.4075588 51.9568896 36.7297944
624 7 27.730716 50.8951596 35.1065652
625 7 30.248529 50.6704326 34.6775418
626 5 26.3408376 50.174313 34.9888854
627 5 28.8586506 49.9495866 34.559862
628 5 27.4937928 47.903205 35.283348
629 7 28.8836712 48.624051 35.4010278
630 7 28.5716862 49.6087026 33.0543126
631 7 27.2068284 47.562321 33.7777986
632 7 29.7246414 47.3375946 33.3487746
633 5 25.8169506 46.841475 33.6601188
634 5 28.334763 46.616748 33.2310948
635 5 26.9699052 44.570367 33.9545808
636 7 28.3597836 45.291213 34.0722606
637 7 28.0477986 46.275864 31.7255454
638 7 26.6829414 44.229483 32.4490314
639 7 29.2007538 44.004756 32.0200074
640 5 25.293063 43.5086364 32.3313516
641 5 27.810876 43.28391 31.9023276
642 5 26.4460182 41.2375284 32.6258136
643 7 27.835896 41.958375 32.7434934
644 7 26.1590538 40.8966444 31.1202642
645 7 28.6768668 40.671918 30.6912408
646 5 27.2869884 39.951072 30.573561
647 5 25.9221306 37.9046904 31.297047
648 7 27.312009 38.6255364 31.4147268
649 7 25.6351662 37.5638064 29.7914976
650 7 28.1529792 37.3390794 29.3624736
651 5 26.7631008 36.6182334 29.2447938
652 5 25.398243 34.5718524 29.9682798
653 7 26.7881214 35.2926984 30.0859596
654 7 27.6290916 34.0062414 28.0337064
655 5 26.2392132 33.2853954 27.9160266
656 5 24.8743554 31.2390138 28.6395126
657 7 26.2642338 31.9598604 28.7571924
658 7 27.105204 30.6734034 26.7049392
659 5 25.7153256 29.9525568 26.5872594
660 5 24.3504684 27.9061758 27.310746
661 7 25.7403462 28.6270218 27.4284258
662 7 26.581317 27.3405648 25.3761726
663 5 23.8265808 24.5733372 25.9819788
664 7 25.2164592 25.2941838 26.0996586
665 7 26.0574294 24.0077268 24.0474054
666 5 23.3026932 21.2404992 24.6532116
667 7 24.6925716 21.9613452 24.7708914
668 7 24.168684 18.6285072 23.4421248
669 5 30.2235084 51.9959676 33.8363754
670 7 32.454357 51.4303572 31.9018026
671 5 31.0644786 50.7095106 31.7841228
672 5 29.6996208 48.6631296 32.5076088
673 7 31.0894992 49.3839756 32.6252886
674 7 31.9304694 48.0975186 30.5730354
675 5 29.1757332 45.330291 31.1788416
676 7 30.5656116 46.0511376 31.2965214
677 7 31.4065818 44.7646806 29.2442682
678 5 28.6518462 41.997453 29.8500744
679 7 30.0417246 42.718299 29.9677542
680 7 30.8826948 41.4318426 27.9155016
681 7 29.517837 39.385461 28.6389876
682 7 28.9939494 36.052623 27.3102204
683 7 28.4700618 32.7197844 25.9814532
684 7 7.4631126 5.9605146 46.960449
685 7 11.7644904 20.0517918 49.4997774
686 7 10.0876476 18.9900618 47.8765482
687 7 11.2406028 16.7189538 48.1710108
688 5 9.8507244 15.9981078 48.053331
689 5 8.1738822 14.9363772 46.4301018
690 7 9.875745 14.6725722 48.8944968
691 7 9.56376 15.6572238 46.5477816
692 7 10.7167152 13.3861158 46.8422436
693 5 9.3268374 12.6652692 46.7245638
694 5 7.9619796 10.6188882 47.4480498
695 5 7.6499946 11.6035392 45.1013346
696 7 9.3518574 11.3397342 47.5657296
697 7 9.039873 12.3243852 45.2190144
698 7 7.6750152 10.2780042 45.9425004
699 7 10.1928282 10.0532772 45.5134764
700 5 8.8029498 9.3324312 45.3957966
701 5 7.438092 7.2860496 46.1192832
702 5 7.126107 8.2707012 43.7725674
703 7 8.8279704 8.0068962 46.236963
704 7 8.5159854 8.9915472 43.8902472
705 7 7.1511276 6.9451656 44.6137338
706 7 9.6689406 6.7204392 44.1847098
707 5 8.2790622 5.9995932 44.06703
708 5 6.9142044 3.9532116 44.790516
709 5 6.6022194 4.9378626 42.4438008
710 7 8.3040828 4.6740576 44.9081958
711 7 7.9920978 5.6587092 42.5614806
712 7 6.62724 3.6123276 43.2849666
713 7 9.145053 3.3876006 42.8559426
714 5 7.7551746 2.6667546 42.7382628
715 7 7.4682102 2.3258706 41.2327134
716 7 15.018093 27.477393 49.3815726
717 7 13.3412508 26.4156624 47.7583434
718 7 11.976393 24.3692814 48.4818294
719 7 14.494206 24.1445544 48.0528054
720 5 13.1043276 23.4237084 47.9351256
721 5 11.7394698 21.3773274 48.6586116
722 5 11.4274848 22.3619784 46.3118964
723 7 13.1293482 22.0981734 48.7762914
724 7 12.8173632 23.0828244 46.4295762
725 7 11.4525054 21.0364434 47.1530622
726 7 13.9703184 20.8117164 46.7240382
727 5 10.062627 20.3155968 47.0353824
728 5 12.58044 20.0908704 46.6063584
729 5 11.2155822 18.0444888 47.329845
730 5 10.9035972 19.0291398 44.9831292
731 7 12.6054606 18.7653354 47.4475248
732 7 12.2934756 19.7499864 45.100809
733 7 10.9286178 17.7036048 45.8242956
734 7 13.4464308 17.4788784 45.3952716
735 5 9.53874 16.9827588 45.7066158
736 5 12.0565524 16.7580318 45.2775918
737 5 10.6916946 14.7116508 46.0010778
738 5 10.3797102 15.6963018 43.6543626
739 7 12.081573 15.4324968 46.1187576
740 7 11.769588 16.4171478 43.7720424
741 7 10.4047308 14.3707668 44.4955284
742 7 12.9225432 14.1460398 44.0665044
743 5 9.0148524 13.6499202 44.3778486
744 5 11.5326654 13.4251938 43.9488246
745 5 10.1678076 11.3788122 44.6723106
746 5 9.8558226 12.3634638 42.3255954
747 7 11.5576854 12.0996588 44.7899904
748 7 11.245701 13.0843098 42.4432752
749 7 9.8808432 11.0379282 43.1667612